#LAMMPS data file

436 atoms
436 ellipsoids
92 bonds
0 angles
0 dihedrals
0 impropers

3 atom types
1 bond types
0 angle types

-701.0227631832327 646.5444322246569 xlo xhi
-460.912696828374 793.4893508572379 ylo yhi
-957.6912245292539 524.69612 zlo zhi

Atoms

1 1 47.357891170431195 90.94304209445596 6.526655030800815 1 1 1 0
2 1 -17.852846759592154 232.99448430703706 -18.26072804341718 1 1 2 0
3 1 102.93894046293728 183.05182517217435 -107.48259685284394 1 1 3 0
4 1 -31.341201695926486 99.67286373385048 -99.59215028865556 1 1 4 0
5 1 -32.61336644717224 250.10574355441292 -148.72256043815852 1 1 5 0
6 1 54.83747135194112 141.55375191223692 -223.6510798047559 1 1 6 0
7 1 -101.68275894584443 123.09421612916339 -209.2938522895955 1 1 7 0
8 1 -41.79899004006418 250.94372860007957 -280.8054130214703 1 1 8 0
9 1 -8.593881956541598 105.7166241330917 -334.209306709259 1 1 9 0
10 1 -158.4266044935451 155.7088748631086 -324.39110627247254 1 1 10 0
11 1 -52.66096314496793 234.6229868042635 -411.7504731565307 1 1 11 0
12 1 -83.52638894303912 82.14607423804817 -440.79498314205046 1 1 12 0
13 2 47.08928004586555 174.79520998108543 21.708908944239404 1 1 0 0
14 2 37.50363387437881 160.78339844989873 20.823174734916556 1 1 0 0
15 2 27.91798770289206 146.77158691871202 19.937440525593708 1 1 0 0
16 3 18.44434 133.04918 18.79824 1 1 1 0
17 3 10.20728 118.86322 20.542 1 1 1 0
18 3 5.57138 103.20992000000001 21.0333 1 1 1 0
19 3 4.953460000000001 86.43444000000001 19.327040000000004 1 1 1 0
20 3 9.16826 70.68914 19.003880000000002 1 1 1 0
21 3 20.95588 59.21024 20.73616 1 1 1 0
22 3 35.4601 51.728539999999995 23.48534 1 1 1 0
23 3 51.61762 53.249399999999994 24.696119999999997 1 1 1 0
24 3 66.17948 60.84938000000001 24.6338 1 1 1 0
25 3 78.21374 72.10452 22.5389 1 1 1 0
26 3 86.06094 86.25942 19.8936 1 1 1 0
27 3 87.20021999999999 102.14534 15.950700000000001 1 1 1 0
28 3 79.73638 116.60155999999999 11.737179999999999 1 1 1 0
29 3 67.8386 127.2049 7.776059999999999 1 1 1 0
30 3 52.36280000000001 131.19998000000004 2.54906 1 1 1 0
31 3 36.307399999999994 130.86952 -1.4349599999999998 1 1 1 0
32 3 21.625259999999997 123.42446 -4.24774 1 1 1 0
33 3 9.77402 111.69515999999999 -4.81034 1 1 1 0
34 3 5.19328 95.30945999999999 -5.52016 1 1 1 0
35 3 8.89094 79.74154 -6.28656 1 1 1 0
36 3 17.198320000000002 65.32377999999999 -5.765000000000001 1 1 1 0
37 3 29.219 54.422360000000005 -3.98848 1 1 1 0
38 3 44.57802 48.36844 -2.58012 1 1 1 0
39 3 60.41071999999999 50.35242 -0.7932799999999999 1 1 1 0
40 3 74.57278 58.97336 -0.488 1 1 1 0
41 3 84.34448 71.28134 -3.5202599999999995 1 1 1 0
42 3 87.60558 87.11428 -8.423919999999999 1 1 1 0
43 3 87.39606 102.99728 -12.84076 1 1 1 0
44 3 82.29182 118.6603 -13.296700000000001 1 1 1 0
45 2 76.05975231184858 133.64152190935494 -16.21561395118572 1 1 0 0
46 2 69.07626155924292 148.83490954677453 -19.168469755928594 1 1 0 0
47 2 62.22947952527868 164.1443341690866 -21.951111219202424 1 1 0 0
48 2 55.38269749131441 179.45375879139866 -24.73375268247625 1 1 0 0
49 2 48.53591545735014 194.7631834137107 -27.51639414575007 1 1 0 0
50 2 41.689133423385876 210.07260803602276 -30.299035609023896 1 1 0 0
51 2 34.90958599370481 225.29267022527134 -33.32364070769397 1 1 0 0
52 3 28.24888689226655 240.37059083757487 -34.685163367470274 1 1 2 0
53 3 20.963863446697314 254.9072240842047 -33.59929296908781 1 1 2 0
54 3 8.802027192155546 266.29858882579964 -31.755514097948197 1 1 2 0
55 3 -4.968147188526719 275.3615216410093 -27.704240098253955 1 1 2 0
56 3 -18.21954363980158 276.6555123718635 -19.02342660466919 1 1 2 0
57 3 -29.55488391009765 274.13900523022227 -6.758739998062704 1 1 2 0
58 3 -36.85922633998218 264.8280794450085 4.081183021111846 1 1 2 0
59 3 -39.54385862753344 250.09034385347815 11.445571878795622 1 1 2 0
60 3 -37.765900770815776 234.38787956759066 15.45664198196802 1 1 2 0
61 3 -33.74823743993807 218.45115036518172 16.015826292199858 1 1 2 0
62 3 -25.596316085050532 204.73166378465024 12.151225576117593 1 1 2 0
63 3 -14.43165650007457 196.65924687611408 2.4711701934255847 1 1 2 0
64 3 -3.0915497023678413 195.35206267362886 -9.112350820194532 1 1 2 0
65 3 5.630398767024758 199.51446658291016 -22.78028615345025 1 1 2 0
66 3 11.012628282600753 208.88714656095794 -35.34856926424801 1 1 2 0
67 3 12.783562124871086 221.5321502740664 -46.01906201209131 1 1 2 0
68 3 9.952572588201722 237.04336777491835 -51.69219877368378 1 1 2 0
69 3 1.816129857723439 251.7402068141203 -53.406001479667474 1 1 2 0
70 3 -10.950122548883067 261.2277053802526 -49.891619364351584 1 1 2 0
71 3 -24.859332558911007 265.7633640373184 -42.525873944781175 1 1 2 0
72 3 -37.98761246760252 266.8122495846909 -32.496958912597506 1 1 2 0
73 3 -49.540224056784766 261.8805916154092 -21.780665184861597 1 1 2 0
74 3 -56.601218738777426 252.15188577365137 -10.904488179009839 1 1 2 0
75 3 -57.20055212400915 237.56433495620453 -3.194885263648216 1 1 2 0
76 3 -55.634476015064855 221.7876434862099 -0.10618384039726295 1 1 2 0
77 3 -48.80394517164342 207.07596441786262 -4.021672560266245 1 1 2 0
78 3 -40.01598161472976 194.69855707618825 -11.418481854429697 1 1 2 0
79 3 -27.625358202000598 186.77056257741242 -18.10456699595367 1 1 2 0
80 2 -14.722201462839319 180.88058059973795 -26.370149837078515 1 1 0 0
81 2 -2.246192870104224 175.42716621157686 -36.28291345397666 1 1 0 0
82 2 10.638065037874403 169.87997709131417 -45.88627698061312 1 1 0 0
83 2 23.522322945853006 164.33278797105157 -55.48964050724959 1 1 0 0
84 2 36.406580853831635 158.78559885078892 -65.09300403388606 1 1 0 0
85 2 49.2908387618102 153.2384097305263 -74.69636756052252 1 1 0 0
86 2 62.19025462026882 147.6846945054163 -84.3110291618962 1 1 0 0
87 3 74.77900838894234 142.29952343730338 -93.77155059487957 1 1 3 0
88 3 89.20596917750535 137.39595413801524 -100.26813908238162 1 1 3 0
89 3 103.80226086716343 137.72139871119447 -107.7676626185676 1 1 3 0
90 3 118.25340813009657 141.93282938429223 -115.71280884833023 1 1 3 0
91 3 131.19797698251233 150.5559735091212 -118.78310420250943 1 1 3 0
92 3 141.36968772330877 163.8384613093982 -116.51273893316181 1 1 3 0
93 3 146.544432224657 178.10781016755305 -111.05563048999878 1 1 3 0
94 3 143.2058543032778 192.14871002661482 -102.97537078366022 1 1 3 0
95 3 134.48057935997602 203.37605048594065 -94.92885877306983 1 1 3 0
96 3 122.04766266575521 211.9794696848562 -87.93852917684215 1 1 3 0
97 3 107.21924567411561 216.14177333127364 -82.67023396982545 1 1 3 0
98 3 91.08816950295173 213.21224813139233 -80.24027106167856 1 1 3 0
99 3 77.58392228515532 203.66688818424592 -81.83197339994754 1 1 3 0
100 3 67.91592827619915 191.11312267381845 -86.66698756104246 1 1 3 0
101 3 64.22049981249036 177.47524470168062 -95.60602845744117 1 1 3 0
102 3 64.87720211763488 164.19142109302078 -105.66082308890081 1 1 3 0
103 3 72.7107284554571 153.5532184771155 -115.86792785225029 1 1 3 0
104 3 84.69004717653218 146.66511401712546 -125.252176627979 1 1 3 0
105 3 99.48804075510463 147.68277547309003 -133.10131283212098 1 1 3 0
106 3 112.7523051958639 155.7474384193897 -137.67407835799153 1 1 3 0
107 3 125.04741191214616 166.98236017016728 -138.66419183610236 1 1 3 0
108 3 133.86574770941164 180.425456111529 -136.2782498924647 1 1 3 0
109 3 137.9462024178752 195.53863102345161 -130.76393192761992 1 1 3 0
110 3 134.25679590055523 208.605876002107 -122.0827025913241 1 1 3 0
111 3 124.64048375815894 219.5194292589399 -113.91660810299777 1 1 3 0
112 3 110.6894686211452 225.00823847546175 -108.44994708345041 1 1 3 0
113 3 93.928350653514 225.65994049958294 -106.30202076932638 1 1 3 0
114 3 78.22241884694174 222.25264622098388 -103.73026788735497 1 1 3 0
115 3 64.26531582120091 213.98288369382044 -100.27637760166553 1 1 3 0
116 2 49.94257878472289 205.6340569185178 -100.05030638732853 1 1 0 0
117 2 35.41097660670529 196.85034762216054 -99.22629841593364 1 1 0 0
118 2 20.879374428687704 188.0666383258032 -98.40229044453878 1 1 0 0
119 2 6.347772250670118 179.2829290294459 -97.57828247314393 1 1 0 0
120 2 -8.183829927347409 170.49921973308858 -96.75427450174908 1 1 0 0
121 2 -22.715432105365 161.71551043673125 -95.93026653035423 1 1 0 0
122 2 -37.214452793292956 153.08632137318995 -95.34154450655414 1 1 0 0
123 3 -50.750809502272816 144.04327147468473 -92.66977611545872 1 1 4 0
124 3 -62.131701468039026 132.91489690763808 -89.45593246732224 1 1 4 0
125 3 -70.3715719001044 118.24538468858808 -88.35458650827132 1 1 4 0
126 3 -74.55778870636101 102.20119339114854 -86.41338579856074 1 1 4 0
127 3 -69.59905749069965 87.18213990468277 -82.98521280352301 1 1 4 0
128 3 -60.53079623839284 74.00018067177717 -78.05529642513223 1 1 4 0
129 3 -45.91609004773629 67.54900482802951 -75.61627457106204 1 1 4 0
130 3 -29.322231438322035 66.90959447193286 -76.25231052325736 1 1 4 0
131 3 -13.695289881125259 71.45778226740052 -78.72464314527963 1 1 4 0
132 3 -0.019473963237763313 79.50033677021415 -82.89081729820786 1 1 4 0
133 3 8.73309043455435 92.01195168842978 -88.55453277562958 1 1 4 0
134 3 9.676288356333316 107.25976717209619 -95.72073294227398 1 1 4 0
135 3 4.099128427877349 121.472224251413 -101.77497592852778 1 1 4 0
136 3 -7.47999494140449 131.68490047058566 -108.2248935859631 1 1 4 0
137 3 -21.902706329812673 138.07168476879127 -113.28229959541848 1 1 4 0
138 3 -38.31984935712789 138.43240424805006 -116.15607802472694 1 1 4 0
139 3 -54.20900974955566 133.58448824697754 -115.77161249148571 1 1 4 0
140 3 -66.61092460607645 122.01701274848949 -114.6281376403906 1 1 4 0
141 3 -71.25662547394982 106.58120596836577 -112.74134107951632 1 1 4 0
142 3 -70.13007055960372 90.35351384207087 -109.93070305672697 1 1 4 0
143 3 -65.00031507603885 75.4813623682483 -105.76439302504264 1 1 4 0
144 3 -54.324521645602296 62.94826781481904 -102.9468716462685 1 1 4 0
145 3 -39.66137371294163 56.91474220436735 -100.41682901292555 1 1 4 0
146 3 -23.110096141885656 58.09087728784677 -99.96168591271616 1 1 4 0
147 3 -8.445874014696951 63.12311589331457 -103.73700681082656 1 1 4 0
148 3 1.922053711204893 74.80191879972999 -110.34675733707022 1 1 4 0
149 3 8.729544540664397 88.08934800590444 -117.63474242375412 1 1 4 0
150 3 11.328225911441413 103.85619484256975 -121.0335203760061 1 1 4 0
151 2 11.890573513409754 119.52045492049476 -126.11204888532693 1 1 0 0
152 2 11.774668151440178 135.45483483483494 -131.7167741419965 1 1 0 0
153 2 11.80018672938117 151.57555406971255 -137.11323225379806 1 1 0 0
154 2 11.825705307322124 167.69627330459016 -142.50969036559962 1 1 0 0
155 2 11.851223885263076 183.81699253946772 -147.9061484774012 1 1 0 0
156 2 11.876742463204014 199.93771177434527 -153.30260658920275 1 1 0 0
157 2 11.943322044260487 215.96472361869718 -158.8920876990308 1 1 0 0
158 3 11.873077402857401 231.9218762677503 -163.45095949299053 1 1 5 0
159 3 12.22760727077598 248.28631544049114 -165.20748087732346 1 1 5 0
160 3 6.56790751997311 263.85650738132006 -165.82168112944618 1 1 5 0
161 3 -1.7368330623425805 278.7096708652573 -164.75158429220573 1 1 5 0
162 3 -12.5354420688118 288.20210376956163 -158.13953034863553 1 1 5 0
163 3 -23.891067174669956 293.2627466280157 -146.65348895160142 1 1 5 0
164 3 -34.54680273010196 291.4031651151711 -134.84504280260327 1 1 5 0
165 3 -43.15010508084053 281.6199342087657 -124.60462347448352 1 1 5 0
166 3 -48.59956418722205 267.9975881945875 -117.42912438534135 1 1 5 0
167 3 -51.95141102276997 252.1594924983063 -113.82648693229837 1 1 5 0
168 3 -51.5589700356535 235.91051426818663 -114.22077026231241 1 1 5 0
169 3 -45.78169673417487 221.55821576417202 -120.345330166802 1 1 5 0
170 3 -36.429500763334985 212.89172869338796 -130.91329498480454 1 1 5 0
171 3 -27.001939554787647 209.4331864069589 -144.1882105519814 1 1 5 0
172 3 -18.18047400631742 212.78727790739882 -157.80048995783517 1 1 5 0
173 3 -11.1950588980616 220.46257158726235 -170.9350682479973 1 1 5 0
174 3 -6.980748716156168 234.04064709111435 -179.739351044045 1 1 5 0
175 3 -6.70487698510339 249.99775770360012 -184.90572436591205 1 1 5 0
176 3 -13.344136540461097 265.16816769566384 -184.57926931711845 1 1 5 0
177 3 -23.63739057217815 276.7082799057215 -179.4984618046242 1 1 5 0
178 3 -35.34108857681737 285.1578190705569 -171.0484820033633 1 1 5 0
179 3 -47.06417118314371 288.4987611353375 -160.2090393765015 1 1 5 0
180 3 -58.04882847656138 285.9327569220542 -148.3739621519466 1 1 5 0
181 3 -65.17774776356103 275.46307342454884 -138.06171974444328 1 1 5 0
182 3 -70.5731370107871 261.43227691461914 -131.42835305725774 1 1 5 0
183 3 -71.27030886271368 245.0617030825527 -131.42421840602628 1 1 5 0
184 3 -69.27182015769918 229.0370457495672 -136.03651071518482 1 1 5 0
185 3 -62.73569883151271 215.061786381798 -141.09620958200972 1 1 5 0
186 3 -53.096510573864386 203.05953438186202 -146.96161171837235 1 1 5 0
187 2 -44.401866558500835 191.5151246656491 -155.4081679406179 1 1 0 0
188 2 -35.166624569225874 179.725172455062 -163.45225472978217 1 1 0 0
189 2 -25.931382579950927 167.93522024447492 -171.49634151894642 1 1 0 0
190 2 -16.696140590675956 156.14526803388787 -179.54042830811068 1 1 0 0
191 2 -7.460898601401013 144.35531582330088 -187.58451509727496 1 1 0 0
192 2 1.774343387873958 132.5653636127138 -195.6286018864392 1 1 0 0
193 3 10.768926380883533 120.9585010208591 -203.81900797357326 1 1 6 0
194 3 21.339877932909896 109.51495805583889 -209.2441001566839 1 1 6 0
195 3 34.06991418101087 101.43348547748481 -215.52062176322255 1 1 6 0
196 3 48.52086859219222 97.48245884668786 -223.28394468018868 1 1 6 0
197 3 64.02000278312337 97.75742736624315 -228.33217953609255 1 1 6 0
198 3 78.73821840068595 105.3127983882761 -228.2656797078035 1 1 6 0
199 3 91.0294819487984 115.96827696587988 -225.2174277425178 1 1 6 0
200 3 95.31508806822632 130.74846519764714 -219.9236510263112 1 1 6 0
201 3 93.23647068144221 145.9029528620363 -213.93765070626145 1 1 6 0
202 3 86.46099257470544 160.2538882511355 -209.03522823770268 1 1 6 0
203 3 75.53782568108247 171.62385270037743 -204.52460883710654 1 1 6 0
204 3 60.48250734156643 177.66866172878628 -202.07419110114816 1 1 6 0
205 3 43.80896530760043 175.57747617885204 -202.3289342300355 1 1 6 0
206 3 29.221488054290923 168.43552147608517 -204.7530732826073 1 1 6 0
207 3 19.062933253916736 156.87150099385622 -211.52505774070997 1 1 6 0
208 3 12.962396052372231 143.35985640562475 -218.87192065666855 1 1 6 0
209 3 14.058387583724013 129.05997262678446 -227.4286730304646 1 1 6 0
210 3 20.57929963091774 115.62387126721698 -234.86465131955293 1 1 6 0
211 3 33.65251312812318 107.80906597092488 -242.4802993489415 1 1 6 0
212 3 48.69757070973141 107.79464366605623 -247.98177423529833 1 1 6 0
213 3 64.58259480508595 111.86062703258949 -250.86104141093193 1 1 6 0
214 3 78.8690211620586 119.7508739272348 -250.49259212332677 1 1 6 0
215 3 89.77924076764954 131.9580850800612 -247.94621731892556 1 1 6 0
216 3 93.70114120695328 146.3630576392939 -242.03700200486384 1 1 6 0
217 3 90.67273243758484 161.27177567014178 -235.43877399971842 1 1 6 0
218 3 81.94088013222937 174.09795167439233 -231.51308199658757 1 1 6 0
219 3 67.36342360851287 182.38606230594638 -229.47160529883257 1 1 6 0
220 3 51.73429296456876 187.34656867428671 -227.7552967309516 1 1 6 0
221 3 35.79888903993594 186.48840978476636 -223.6421704429884 1 1 6 0
222 2 19.419019375462526 185.23166537836244 -222.25790186597789 1 1 0 0
223 2 2.590927343206647 183.34669575751568 -220.9970543420326 1 1 0 0
224 2 -14.249265104700651 181.55932084029854 -219.50936848045066 1 1 0 0
225 2 -31.08945755260794 179.77194592308143 -218.02168261886877 1 1 0 0
226 2 -47.9296500005152 177.9845710058643 -216.53399675728687 1 1 0 0
227 2 -64.76984244842247 176.1971960886472 -215.04631089570498 1 1 0 0
228 2 -81.57490218972171 174.52864699907576 -213.7946306546515 1 1 0 0
229 3 -97.74796761593055 172.39861199823093 -211.06383368697743 1 1 7 0
230 3 -112.95453852446167 168.7787543170685 -206.45718427080246 1 1 7 0
231 3 -126.71785127636213 159.7048150858236 -203.40631206681738 1 1 7 0
232 3 -138.29367272188284 147.89704902367538 -199.56648222800885 1 1 7 0
233 3 -141.3978221908025 133.24719054987216 -194.23953698679034 1 1 7 0
234 3 -139.43289453273178 118.30272765881595 -186.62065432645267 1 1 7 0
235 3 -130.410616344174 105.92035826248699 -181.84298619298738 1 1 7 0
236 3 -115.94371357470929 97.62301502723604 -181.1322516239035 1 1 7 0
237 3 -100.07445911086197 94.27397125575821 -182.7959435247034 1 1 7 0
238 3 -84.22103348598966 94.03831916630295 -187.16023126193824 1 1 7 0
239 3 -70.24249474195662 99.54213431104252 -193.78757959581222 1 1 7 0
240 3 -61.990504491734804 111.01121307531555 -202.94628582621095 1 1 7 0
241 3 -60.31466496587784 124.8430199917565 -211.3342171030797 1 1 7 0
242 3 -65.01655327064168 138.2306488371236 -220.2153255895818 1 1 7 0
243 3 -75.21019607668202 149.42335891706477 -226.96737359679014 1 1 7 0
244 3 -89.01401082446615 157.4597386023298 -231.63246105825502 1 1 7 0
245 3 -105.5218027511049 160.3351979211497 -231.7787150968723 1 1 7 0
246 3 -121.9353861048869 156.8764609127138 -229.8377571992024 1 1 7 0
247 3 -133.71366849938826 146.26216340286828 -226.10285915349004 1 1 7 0
248 3 -140.32570875916784 132.1943807065256 -220.9384674415906 1 1 7 0
249 3 -142.79159278507777 117.16452063444714 -214.45358092294563 1 1 7 0
250 3 -139.15239728188288 101.95432165384156 -209.15932562351858 1 1 7 0
251 3 -129.66305103839073 89.6853520531217 -204.44538010782438 1 1 7 0
252 3 -114.54867370768758 83.22371056799514 -202.8972833105863 1 1 7 0
253 3 -98.93992733459166 79.96087192119248 -205.46975006949614 1 1 7 0
254 3 -84.51567686874775 84.03680360468995 -212.801085823536 1 1 7 0
255 3 -72.52516554891653 91.57940255141546 -221.9922850451531 1 1 7 0
256 3 -63.16334338666511 103.2394867848071 -228.11462947527056 1 1 7 0
257 2 -55.91234195135714 116.35773150890336 -234.81073541679152 1 1 0 0
258 2 -49.65595060510587 129.71872640441006 -242.93445280135748 1 1 0 0
259 2 -43.09413429744764 143.3321116421694 -250.72022887782592 1 1 0 0
260 2 -36.53231798978945 156.94549687992875 -258.5060049542943 1 1 0 0
261 2 -29.970501682131232 170.55888211768806 -266.29178103076276 1 1 0 0
262 2 -23.408685374473087 184.17226735544742 -274.0775571072312 1 1 0 0
263 2 -16.839149282923508 197.8016683405453 -281.87249292026024 1 1 0 0
264 3 -10.48084061430301 211.13599035308235 -289.5370882785022 1 1 8 0
265 3 -3.1236683657163167 225.31147142671458 -293.93204041468306 1 1 8 0
266 3 -0.7074202819079343 241.19284103346436 -297.3001768639523 1 1 8 0
267 3 -1.9685305651018925 257.9967010876584 -299.6953892291267 1 1 8 0
268 3 -6.342855224486263 272.87982366691847 -296.42351866331563 1 1 8 0
269 3 -14.340467736559518 284.5888446606368 -287.2594714411221 1 1 8 0
270 3 -23.982853619093664 290.9185994972149 -275.98423626612373 1 1 8 0
271 3 -35.48889079313357 288.5419346851465 -264.3418077723821 1 1 8 0
272 3 -46.23990564496593 280.57718010727217 -254.96586428213467 1 1 8 0
273 3 -56.1398634488098 268.9385140247039 -248.3331246820761 1 1 8 0
274 3 -63.30377323830591 254.6177361961606 -245.40816734483786 1 1 8 0
275 3 -65.29287656357093 238.35550784624934 -247.9145298741545 1 1 8 0
276 3 -61.573531283649814 224.24851580741012 -255.86257064395772 1 1 8 0
277 3 -54.78394061311752 214.00057648178708 -266.96778098374733 1 1 8 0
278 3 -46.196974659267916 210.29983649247342 -280.82862145248237 1 1 8 0
279 3 -36.808363184493054 211.03286144810676 -294.58750119083845 1 1 8 0
280 3 -27.48596690858064 219.0159899289875 -305.9048800731153 1 1 8 0
281 3 -19.95136392288368 231.41431523769643 -314.182891461423 1 1 8 0
282 3 -18.190759675826182 247.7559250339745 -317.5707004721306 1 1 8 0
283 3 -22.375888483510373 263.28638627344674 -315.7876820485736 1 1 8 0
284 3 -28.73858443379014 277.5149408074941 -309.83471835589626 1 1 8 0
285 3 -37.29430463791128 287.98343803384876 -300.8134761304044 1 1 8 0
286 3 -48.04206126300077 293.48935085723787 -289.42767265973606 1 1 8 0
287 3 -58.617468418186874 290.36851182191367 -277.6739718897983 1 1 8 0
288 3 -69.34537517752229 281.47455267723734 -268.5048001497863 1 1 8 0
289 3 -77.36149679982121 268.2053765582505 -264.721548647306 1 1 8 0
290 3 -82.86699694253844 252.2967202366017 -266.3270083080277 1 1 8 0
291 3 -84.24558909107623 236.266419191686 -268.78236840320005 1 1 8 0
292 3 -80.4161601243346 220.4139467842815 -271.8078679641916 1 1 8 0
293 2 -77.53762850060788 205.25014066160688 -277.86326658849384 1 1 0 0
294 2 -74.16853984689189 189.5996984607418 -283.5827858480808 1 1 0 0
295 2 -70.79945119317588 173.94925625987676 -289.3023051076676 1 1 0 0
296 2 -67.43036253945988 158.29881405901165 -295.0218243672545 1 1 0 0
297 2 -64.06127388574387 142.64837185814667 -300.7413436268414 1 1 0 0
298 2 -60.69218523202785 126.99792965728162 -306.4608628864283 1 1 0 0
299 2 -57.517482633747385 111.48959890859244 -312.32976731795077 1 1 0 0
300 3 -53.07057803488377 96.09407910712625 -316.2478102333008 1 1 9 0
301 3 -45.88171917262095 82.01056605143283 -319.9449958797321 1 1 9 0
302 3 -35.055028490897804 70.65847885710215 -326.1268970127335 1 1 9 0
303 3 -21.419282037935236 62.42934709074693 -331.1325492954717 1 1 9 0
304 3 -5.282189321378441 62.34525555367238 -332.35750654086524 1 1 9 0
305 3 10.970337534447056 65.97506918787977 -330.6308593164464 1 1 9 0
306 3 22.281806849894103 77.0737791524443 -327.4645628270165 1 1 9 0
307 3 28.1435759873157 92.34368350333041 -324.52530874144287 1 1 9 0
308 3 28.494882198489638 108.53710501695817 -321.58431794295865 1 1 9 0
309 3 24.578779055722254 124.30840829912158 -319.34875090517403 1 1 9 0
310 3 14.592529113031054 137.09779101028272 -317.95876300668294 1 1 9 0
311 3 -0.8523655043447 143.8541141067703 -318.6985282708218 1 1 9 0
312 3 -17.199231822117664 144.03007115444967 -320.2801438820978 1 1 9 0
313 3 -32.02479990595634 137.89241647145428 -325.02440539788387 1 1 9 0
314 3 -43.94655367620101 127.80026806835431 -330.5383242094972 1 1 9 0
315 3 -50.47940728948109 113.76053759517409 -336.7123907859692 1 1 9 0
316 3 -51.23003298588842 97.93067489913253 -341.7091426673783 1 1 9 0
317 3 -44.559693929233525 83.47664405239496 -347.66809269254406 1 1 9 0
318 3 -31.63916015382087 74.98652002485177 -352.60613579933795 1 1 9 0
319 3 -15.846003188989545 71.30469393910045 -355.69274454916047 1 1 9 0
320 3 0.42112237640345357 71.17348496728694 -356.1583947473279 1 1 9 0
321 3 16.027394603859772 77.11164681766238 -355.7437235816179 1 1 9 0
322 3 27.003531057438995 88.32335643073228 -352.3327925623497 1 1 9 0
323 3 31.51857433452369 103.62773904270018 -347.75835322151823 1 1 9 0
324 3 30.7522966292825 119.47283799814677 -346.03744025679396 1 1 9 0
325 3 21.78468638995007 133.8534607908718 -345.4400966669091 1 1 9 0
326 3 10.004529825642523 145.56603346362778 -345.676709497949 1 1 9 0
327 3 -4.3109222266927585 152.74526725058476 -342.44797439331353 1 1 9 0
328 2 -19.67352755077271 158.57586218669252 -341.23502312393606 1 1 0 0
329 2 -35.65007540102977 164.0178942656583 -340.55307873458634 1 1 0 0
330 2 -51.68995065512993 169.5660477098466 -339.5833389794722 1 1 0 0
331 2 -67.72982590923007 175.1142011540349 -338.61359922435815 1 1 0 0
332 2 -83.76970116333023 180.66235459822315 -337.6438594692441 1 1 0 0
333 2 -99.80957641743035 186.2105080424114 -336.67411971413003 1 1 0 0
334 2 -115.80534245161182 191.83666421128237 -335.90361577518206 1 1 0 0
335 3 -131.49519056694794 196.98813543135287 -334.257414877643 1 1 10 0
336 3 -146.6295959015521 201.719574929925 -329.83370787124466 1 1 10 0
337 3 -162.70834734294 200.38146305900273 -326.0227330615452 1 1 10 0
338 3 -178.54052197187713 195.90600427420594 -321.5458140265812 1 1 10 0
339 3 -188.8100205773209 186.0965244644455 -314.5639088048891 1 1 10 0
340 3 -193.90373825980592 173.16253186197483 -304.9070278285917 1 1 10 0
341 3 -192.435087166859 159.1426435231627 -297.3091373964767 1 1 10 0
342 3 -183.58192129242676 145.6521029472846 -293.53801351991484 1 1 10 0
343 3 -171.08403805021865 135.1424327834669 -293.217935135307 1 1 10 0
344 3 -156.89530743907488 127.19008695788122 -296.4581926291311 1 1 10 0
345 3 -142.2200693902774 123.86523679460008 -302.6162379682346 1 1 10 0
346 3 -129.08391559562406 127.77321442362256 -312.05259147508644 1 1 10 0
347 3 -121.14083492802652 137.72788062993524 -322.6386926577001 1 1 10 0
348 3 -118.62670565113324 149.84766617984286 -333.76765310362305 1 1 10 0
349 3 -122.55120323081121 163.11893520124772 -342.86897565300023 1 1 10 0
350 3 -130.84429074463296 175.56625026659705 -350.386445394823 1 1 10 0
351 3 -144.16393500633234 185.45908876316776 -352.47421058108046 1 1 10 0
352 3 -159.90953703877636 191.12409411682924 -351.29920905304743 1 1 10 0
353 3 -175.68735147169417 188.49026572544858 -347.0037231207263 1 1 10 0
354 3 -188.06527188323167 180.11904936522365 -340.55006553009247 1 1 10 0
355 3 -197.17855041706002 168.64147733549163 -332.4886194817227 1 1 10 0
356 3 -201.0227631832326 155.17595596472736 -324.122746033129 1 1 10 0
357 3 -199.01777621428715 140.6801600781764 -316.83110319646914 1 1 10 0
358 3 -189.04000779615004 128.35720702900318 -312.91101751481676 1 1 10 0
359 3 -176.3073819048309 117.97637668126288 -313.2170054916128 1 1 10 0
360 3 -161.76985394855922 113.49528837271359 -319.304852546952 1 1 10 0
361 3 -147.94673319906232 113.05785592185313 -328.8330646397091 1 1 10 0
362 3 -134.6033260513778 117.40614852800805 -336.9985496903586 1 1 10 0
363 3 -122.24309988471332 125.32264279587446 -344.4768431570086 1 1 10 0
364 2 -111.32795084644663 133.31412640873555 -354.3363691802535 1 1 0 0
365 2 -99.90091294363359 141.6136852202561 -363.7989337534433 1 1 0 0
366 2 -88.47387504082062 149.91324403177663 -373.26149832663316 1 1 0 0
367 2 -77.04683713800759 158.2128028432972 -382.72406289982297 1 1 0 0
368 2 -65.61979923519463 166.51236165481774 -392.18662747301283 1 1 0 0
369 2 -54.192761332381636 174.8119204663383 -401.6491920462027 1 1 0 0
370 3 -43.05097287380078 182.9810330596792 -411.2320248057812 1 1 11 0
371 3 -30.76492914734174 191.74070856285226 -417.89929802153046 1 1 11 0
372 3 -21.038506728328876 203.54371353406705 -423.6303124139746 1 1 11 0
373 3 -14.886529566882853 218.3737642555039 -428.81998004775016 1 1 11 0
374 3 -11.442651749169332 234.27941855987268 -429.78605987994536 1 1 11 0
375 3 -13.393568265699301 249.52519592794684 -423.6644488451401 1 1 11 0
376 3 -18.106576657603558 262.3100602247423 -414.27077969080193 1 1 11 0
377 3 -28.54806913636437 267.9971785940064 -403.15878727862133 1 1 11 0
378 3 -41.22888504766238 267.7133490931654 -392.7219441217743 1 1 11 0
379 3 -55.03388286553248 263.2845236727092 -384.61653007800567 1 1 11 0
380 3 -67.62501186629949 254.47998703593285 -378.8823379781796 1 1 11 0
381 3 -77.34890226787897 241.30286526003397 -377.87422551619863 1 1 11 0
382 3 -81.02284951385916 225.60698962850387 -382.62675692774076 1 1 11 0
383 3 -80.06050359242258 211.3394928479714 -390.70084422497683 1 1 11 0
384 3 -74.86631843096873 201.49952787408992 -403.3094963602258 1 1 11 0
385 3 -66.74013012302325 195.10900856011102 -416.22784822156916 1 1 11 0
386 3 -55.871891508853324 195.52263208091338 -428.9012924937512 1 1 11 0
387 3 -43.68372545864098 200.75090852197076 -439.02347706902617 1 1 11 0
388 3 -34.45900422605796 213.3636081260097 -445.7912325868776 1 1 11 0
389 3 -31.03021974403456 228.93141812051363 -447.37455836285017 1 1 11 0
390 3 -30.272711097312907 245.37976748300827 -444.9180619522963 1 1 11 0
391 3 -32.5834603194374 260.2106923353789 -438.4995079839179 1 1 11 0
392 3 -39.290962476417214 272.2554340752287 -429.30894043610954 1 1 11 0
393 3 -49.34180000933598 277.32229237260634 -417.8585703548777 1 1 11 0
394 3 -61.94255643383927 275.9122404188158 -407.17164203924136 1 1 11 0
395 3 -75.2891955182553 269.6474005082415 -400.94379334782195 1 1 11 0
396 3 -86.9934363389737 257.5667679337046 -399.38440017775036 1 1 11 0
397 3 -96.1333191381232 243.84624241730648 -399.5626841862274 1 1 11 0
398 3 -99.45606049191599 227.705769283652 -399.7520507597654 1 1 11 0
399 2 -103.32804148257082 211.94557954727821 -402.65376041149983 1 1 0 0
400 2 -106.81541718048432 195.66690439018967 -405.9959863565578 1 1 0 0
401 2 -110.33142655044185 179.3267707213128 -409.1004524609965 1 1 0 0
402 2 -113.84743592039936 162.98663705243595 -412.2049185654352 1 1 0 0
403 2 -117.36344529035686 146.64650338355912 -415.309384669874 1 1 0 0
404 2 -120.87945466031438 130.3063697146823 -418.4138507743128 1 1 0 0
405 2 -124.55701575516461 114.10254516968423 -421.68071577111806 1 1 0 0
406 3 -127.1970117361971 97.89222088719129 -423.6347255818575 1 1 12 0
407 3 -127.6509411046256 81.61271452102696 -424.2143874437159 1 1 12 0
408 3 -123.14496899897904 65.87942248938457 -427.8520665821492 1 1 12 0
409 3 -115.23258700681863 51.25563002219228 -431.27349607793406 1 1 12 0
410 3 -101.552309721614 43.252270051135056 -432.4679354461706 1 1 12 0
411 3 -85.29719130270622 39.087303171625976 -430.55235175562666 1 1 12 0
412 3 -69.82355169987295 42.9117097476457 -428.68390851181994 1 1 12 0
413 3 -57.3784175865277 53.999959056039486 -427.78297105108516 1 1 12 0
414 3 -49.5982868803764 68.30170387773988 -426.91875845422754 1 1 12 0
415 3 -45.38611430878032 84.191520329328 -427.3715042614235 1 1 12 0
416 3 -47.60032071661445 100.43965493656493 -428.2133381363752 1 1 12 0
417 3 -57.78750804300411 113.65423604146781 -430.47454825588864 1 1 12 0
418 3 -72.05535604744921 121.14467455933035 -432.66693415435003 1 1 12 0
419 3 -88.15992287389805 122.84260544975817 -436.90608568556183 1 1 12 0
420 3 -103.49776962095439 118.30275508973591 -441.25550872256565 1 1 12 0
421 3 -116.5940655971488 109.03834929227746 -445.67699693174734 1 1 12 0
422 3 -124.66293610971283 94.6245821336294 -448.49364312517537 1 1 12 0
423 3 -126.40433124892643 78.13710590107068 -451.69779171965956 1 1 12 0
424 3 -119.66439896049296 63.64155826151822 -454.8271882398847 1 1 12 0
425 3 -107.70936469909881 52.610953643168635 -456.7495424489048 1 1 12 0
426 3 -93.15269035692805 44.729686705215 -456.89059039786326 1 1 12 0
427 3 -76.7562051503279 42.78823364856502 -456.7953590261006 1 1 12 0